Title:  // Generated for: spectre 
Date: Fri Jul 29 17:49:19 2022
Plotname: Transient Analysis
Flags: real
No. Variables: 10
No. Points:      12209
Command: btdsim version v3.5.12.r18
Variables: 
	0	time	s
	1	net20	V
	2	Vout	V
	3	net37	V
	4	net23	V
	5	net14	V
	6	vcc!	V
	7	L1#branch	A
	8	L0#branch	A
	9	V0#branch	A
Values:
0	 0.000000e+00
	 5.000000e+00
	 0.000000e+00
	 4.990131e-01
	 5.000000e+00
	 1.463288e+00
	 5.000000e+00
	 2.748288e-03
	 0.000000e+00
	-3.190377e-03
1	 1.000000e-13
	 5.000000e+00
	-6.393602e-10
	 4.990131e-01
	 5.000000e+00
	 1.463288e+00
	 5.000000e+00
	 2.748288e-03
	-3.197265e-14
	-3.190377e-03
2	 2.000000e-13
	 5.000000e+00
	-7.164430e-10
	 4.990131e-01
	 5.000000e+00
	 1.463288e+00
	 5.000000e+00
	 2.748288e-03
	-6.651770e-14
	-3.190377e-03
3	 4.000000e-13
	 5.000000e+00
	-8.112207e-10
	 4.990131e-01
	 5.000000e+00
	 1.463288e+00
	 5.000000e+00
	 2.748288e-03
	-1.428477e-13
	-3.190377e-03
4	 8.000000e-13
	 5.000000e+00
	-9.168818e-10
	 4.990131e-01
	 5.000000e+00
	 1.463288e+00
	 5.000000e+00
	 2.748288e-03
	-3.140119e-13
	-3.190377e-03
5	 1.600000e-12
	 5.000000e+00
	-9.655027e-10
	 4.990131e-01
	 5.000000e+00
	 1.463288e+00
	 5.000000e+00
	 2.748288e-03
	-6.829183e-13
	-3.190377e-03
6	 3.200000e-12
	 5.000000e+00
	-7.835515e-10
	 4.990131e-01
	 5.000000e+00
	 1.463288e+00
	 5.000000e+00
	 2.748288e-03
	-1.355028e-12
	-3.190377e-03
7	 6.400000e-12
	 5.000000e+00
	-3.258637e-10
	 4.990131e-01
	 5.000000e+00
	 1.463288e+00
	 5.000000e+00
	 2.748288e-03
	-2.209081e-12
	-3.190377e-03
8	 1.280000e-11
	 5.000000e+00
	 5.676683e-11
	 4.990131e-01
	 5.000000e+00
	 1.463288e+00
	 5.000000e+00
	 2.748288e-03
	-2.799387e-12
	-3.190377e-03
9	 2.280000e-11
	 5.000000e+00
	 8.130974e-11
	 4.990131e-01
	 5.000000e+00
	 1.463288e+00
	 5.000000e+00
	 2.748288e-03
	-2.945955e-12
	-3.190377e-03
10	 3.280000e-11
	 5.000000e+00
	 1.867251e-11
	 4.990131e-01
	 5.000000e+00
	 1.463288e+00
	 5.000000e+00
	 2.748288e-03
	-3.009554e-12
	-3.190377e-03
11	 4.280000e-11
	 5.000000e+00
	 1.061200e-13
	 4.990131e-01
	 5.000000e+00
	 1.463288e+00
	 5.000000e+00
	 2.748288e-03
	-3.128686e-12
	-3.190377e-03
12	 5.280000e-11
	 5.000000e+00
	 5.408286e-12
	 4.990131e-01
	 5.000000e+00
	 1.463288e+00
	 5.000000e+00
	 2.748288e-03
	-3.267994e-12
	-3.190377e-03
13	 6.280000e-11
	 5.000000e+00
	 1.408182e-11
	 4.990131e-01
	 5.000000e+00
	 1.463288e+00
	 5.000000e+00
	 2.748288e-03
	-3.402762e-12
	-3.190377e-03
14	 7.280000e-11
	 5.000000e+00
	 2.102924e-11
	 4.990131e-01
	 5.000000e+00
	 1.463288e+00
	 5.000000e+00
	 2.748288e-03
	-3.528971e-12
	-3.190377e-03
15	 8.280000e-11
	 5.000000e+00
	 2.641747e-11
	 4.990131e-01
	 5.000000e+00
	 1.463288e+00
	 5.000000e+00
	 2.748288e-03
	-3.649045e-12
	-3.190377e-03
16	 9.280000e-11
	 5.000000e+00
	 3.097326e-11
	 4.990131e-01
	 5.000000e+00
	 1.463288e+00
	 5.000000e+00
	 2.748288e-03
	-3.765209e-12
	-3.190377e-03
17	 1.028000e-10
	 5.000000e+00
	 3.483889e-11
	 4.990131e-01
	 5.000000e+00
	 1.463288e+00
	 5.000000e+00
	 2.748288e-03
	-3.879208e-12
	-3.190377e-03
18	 1.128000e-10
	 5.000000e+00
	 3.823354e-11
	 4.990131e-01
	 5.000000e+00
	 1.463288e+00
	 5.000000e+00
	 2.748288e-03
	-3.991933e-12
	-3.190377e-03
19	 1.228000e-10
	 5.000000e+00
	 4.110395e-11
	 4.990131e-01
	 5.000000e+00
	 1.463288e+00
	 5.000000e+00
	 2.748288e-03
	-4.104207e-12
	-3.190377e-03
20	 1.328000e-10
	 5.000000e+00
	 4.345071e-11
	 4.990131e-01
	 5.000000e+00
	 1.463288e+00
	 5.000000e+00
	 2.748288e-03
	-4.216839e-12
	-3.190377e-03
21	 1.428000e-10
	 5.000000e+00
	 4.545369e-11
	 4.990131e-01
	 5.000000e+00
	 1.463288e+00
	 5.000000e+00
	 2.748288e-03
	-4.330053e-12
	-3.190377e-03
22	 1.528000e-10
	 5.000000e+00
	 4.703086e-11
	 4.990131e-01
	 5.000000e+00
	 1.463288e+00
	 5.000000e+00
	 2.748288e-03
	-4.444155e-12
	-3.190377e-03
23	 1.628000e-10
	 5.000000e+00
	 4.827349e-11
	 4.990131e-01
	 5.000000e+00
	 1.463288e+00
	 5.000000e+00
	 2.748288e-03
	-4.559183e-12
	-3.190377e-03
24	 1.728000e-10
	 5.000000e+00
	 4.911877e-11
	 4.990131e-01
	 5.000000e+00
	 1.463288e+00
	 5.000000e+00
	 2.748288e-03
	-4.675285e-12
	-3.190377e-03
25	 1.828000e-10
	 5.000000e+00
	 4.967399e-11
	 4.990131e-01
	 5.000000e+00
	 1.463288e+00
	 5.000000e+00
	 2.748288e-03
	-4.792293e-12
	-3.190377e-03
26	 1.928000e-10
	 5.000000e+00
	 4.992887e-11
	 4.990131e-01
	 5.000000e+00
	 1.463288e+00
	 5.000000e+00
	 2.748288e-03
	-4.909967e-12
	-3.190377e-03
27	 2.028000e-10
	 5.000000e+00
	 4.987077e-11
	 4.990131e-01
	 5.000000e+00
	 1.463288e+00
	 5.000000e+00
	 2.748288e-03
	-5.028086e-12
	-3.190377e-03
28	 2.128000e-10
	 5.000000e+00
	 4.955621e-11
	 4.990131e-01
	 5.000000e+00
	 1.463288e+00
	 5.000000e+00
	 2.748288e-03
	-5.146248e-12
	-3.190377e-03
29	 2.228000e-10
	 5.000000e+00
	 4.895155e-11
	 4.990131e-01
	 5.000000e+00
	 1.463288e+00
	 5.000000e+00
	 2.748288e-03
	-5.264112e-12
	-3.190377e-03
30	 2.328000e-10
	 5.000000e+00
	 4.810415e-11
	 4.990131e-01
	 5.000000e+00
	 1.463288e+00
	 5.000000e+00
	 2.748288e-03
	-5.381203e-12
	-3.190377e-03
31	 2.428000e-10
	 5.000000e+00
	 4.700779e-11
	 4.990131e-01
	 5.000000e+00
	 1.463288e+00
	 5.000000e+00
	 2.748288e-03
	-5.497043e-12
	-3.190377e-03
32	 2.528000e-10
	 5.000000e+00
	 4.566918e-11
	 4.990131e-01
	 5.000000e+00
	 1.463288e+00
	 5.000000e+00
	 2.748288e-03
	-5.611139e-12
	-3.190377e-03
33	 2.628000e-10
	 5.000000e+00
	 4.409826e-11
	 4.990131e-01
	 5.000000e+00
	 1.463288e+00
	 5.000000e+00
	 2.748288e-03
	-5.722988e-12
	-3.190377e-03
34	 2.728000e-10
	 5.000000e+00
	 4.231866e-11
	 4.990131e-01
	 5.000000e+00
	 1.463288e+00
	 5.000000e+00
	 2.748288e-03
	-5.832030e-12
	-3.190377e-03
35	 2.828000e-10
	 5.000000e+00
	 4.035254e-11
	 4.990131e-01
	 5.000000e+00
	 1.463288e+00
	 5.000000e+00
	 2.748288e-03
	-5.937646e-12
	-3.190377e-03
36	 2.928000e-10
	 5.000000e+00
	 3.813776e-11
	 4.990131e-01
	 5.000000e+00
	 1.463288e+00
	 5.000000e+00
	 2.748288e-03
	-6.039437e-12
	-3.190377e-03
37	 3.028000e-10
	 5.000000e+00
	 3.575314e-11
	 4.990131e-01
	 5.000000e+00
	 1.463288e+00
	 5.000000e+00
	 2.748288e-03
	-6.136864e-12
	-3.190377e-03
38	 3.128000e-10
	 5.000000e+00
	 3.321459e-11
	 4.990131e-01
	 5.000000e+00
	 1.463288e+00
	 5.000000e+00
	 2.748288e-03
	-6.229329e-12
	-3.190377e-03
39	 3.228000e-10
	 5.000000e+00
	 3.052147e-11
	 4.990131e-01
	 5.000000e+00
	 1.463288e+00
	 5.000000e+00
	 2.748288e-03
	-6.316273e-12
	-3.190377e-03
40	 3.328000e-10
	 5.000000e+00
	 2.765793e-11
	 4.990131e-01
	 5.000000e+00
	 1.463288e+00
	 5.000000e+00
	 2.748288e-03
	-6.397263e-12
	-3.190377e-03
41	 3.428000e-10
	 5.000000e+00
	 2.462944e-11
	 4.990131e-01
	 5.000000e+00
	 1.463288e+00
	 5.000000e+00
	 2.748288e-03
	-6.471948e-12
	-3.190377e-03
42	 3.528000e-10
	 5.000000e+00
	 2.148873e-11
	 4.990131e-01
	 5.000000e+00
	 1.463288e+00
	 5.000000e+00
	 2.748288e-03
	-6.539893e-12
	-3.190377e-03
43	 3.628000e-10
	 5.000000e+00
	 1.831636e-11
	 4.990131e-01
	 5.000000e+00
	 1.463288e+00
	 5.000000e+00
	 2.748288e-03
	-6.600444e-12
	-3.190377e-03
44	 3.728000e-10
	 5.000000e+00
	 1.494540e-11
	 4.990131e-01
	 5.000000e+00
	 1.463288e+00
	 5.000000e+00
	 2.748288e-03
	-6.653496e-12
	-3.190377e-03
45	 3.828000e-10
	 5.000000e+00
	 1.158120e-11
	 4.990131e-01
	 5.000000e+00
	 1.463288e+00
	 5.000000e+00
	 2.748288e-03
	-6.698529e-12
	-3.190377e-03
46	 3.928000e-10
	 5.000000e+00
	 8.072107e-12
	 4.990131e-01
	 5.000000e+00
	 1.463288e+00
	 5.000000e+00
	 2.748288e-03
	-6.735464e-12
	-3.190377e-03
47	 4.028000e-10
	 5.000000e+00
	 4.572860e-12
	 4.990131e-01
	 5.000000e+00
	 1.463288e+00
	 5.000000e+00
	 2.748288e-03
	-6.763935e-12
	-3.190377e-03
48	 4.128000e-10
	 5.000000e+00
	 1.024861e-12
	 4.990131e-01
	 5.000000e+00
	 1.463288e+00
	 5.000000e+00
	 2.748288e-03
	-6.783761e-12
	-3.190377e-03
49	 4.228000e-10
	 5.000000e+00
	-2.521857e-12
	 4.990131e-01
	 5.000000e+00
	 1.463288e+00
	 5.000000e+00
	 2.748288e-03
	-6.794745e-12
	-3.190377e-03
50	 4.328000e-10
	 5.000000e+00
	-6.070030e-12
	 4.990131e-01
	 5.000000e+00
	 1.463288e+00
	 5.000000e+00
	 2.748288e-03
	-6.796780e-12
	-3.190377e-03
51	 4.428000e-10
	 5.000000e+00
	-9.577938e-12
	 4.990131e-01
	 5.000000e+00
	 1.463288e+00
	 5.000000e+00
	 2.748288e-03
	-6.789744e-12
	-3.190377e-03
52	 4.528000e-10
	 5.000000e+00
	-1.308161e-11
	 4.990131e-01
	 5.000000e+00
	 1.463288e+00
	 5.000000e+00
	 2.748288e-03
	-6.773710e-12
	-3.190377e-03
53	 4.628000e-10
	 5.000000e+00
	-1.649382e-11
	 4.990131e-01
	 5.000000e+00
	 1.463288e+00
	 5.000000e+00
	 2.748288e-03
	-6.748626e-12
	-3.190377e-03
54	 4.728000e-10
	 5.000000e+00
	-1.985425e-11
	 4.990131e-01
	 5.000000e+00
	 1.463288e+00
	 5.000000e+00
	 2.748288e-03
	-6.714613e-12
	-3.190377e-03
55	 4.828000e-10
	 5.000000e+00
	-2.312702e-11
	 4.990131e-01
	 5.000000e+00
	 1.463288e+00
	 5.000000e+00
	 2.748288e-03
	-6.671816e-12
	-3.190377e-03
56	 4.928000e-10
	 5.000000e+00
	-2.625197e-11
	 4.990131e-01
	 5.000000e+00
	 1.463288e+00
	 5.000000e+00
	 2.748288e-03
	-6.620279e-12
	-3.190377e-03
57	 5.028000e-10
	 5.000000e+00
	-2.932224e-11
	 4.990131e-01
	 5.000000e+00
	 1.463288e+00
	 5.000000e+00
	 2.748288e-03
	-6.560401e-12
	-3.190377e-03
58	 5.128000e-10
	 5.000000e+00
	-3.217240e-11
	 4.990131e-01
	 5.000000e+00
	 1.463288e+00
	 5.000000e+00
	 2.748288e-03
	-6.492231e-12
	-3.190377e-03
59	 5.228000e-10
	 5.000000e+00
	-3.493809e-11
	 4.990131e-01
	 5.000000e+00
	 1.463288e+00
	 5.000000e+00
	 2.748288e-03
	-6.416236e-12
	-3.190377e-03
60	 5.328000e-10
	 5.000000e+00
	-3.748447e-11
	 4.990131e-01
	 5.000000e+00
	 1.463288e+00
	 5.000000e+00
	 2.748288e-03
	-6.332645e-12
	-3.190377e-03
61	 5.428000e-10
	 5.000000e+00
	-3.987262e-11
	 4.990131e-01
	 5.000000e+00
	 1.463288e+00
	 5.000000e+00
	 2.748288e-03
	-6.241888e-12
	-3.190377e-03
62	 5.528000e-10
	 5.000000e+00
	-4.205086e-11
	 4.990131e-01
	 5.000000e+00
	 1.463288e+00
	 5.000000e+00
	 2.748288e-03
	-6.144359e-12
	-3.190377e-03
63	 5.628000e-10
	 5.000000e+00
	-4.403500e-11
	 4.990131e-01
	 5.000000e+00
	 1.463288e+00
	 5.000000e+00
	 2.748288e-03
	-6.040550e-12
	-3.190377e-03
64	 5.728000e-10
	 5.000000e+00
	-4.577710e-11
	 4.990131e-01
	 5.000000e+00
	 1.463288e+00
	 5.000000e+00
	 2.748288e-03
	-5.930890e-12
	-3.190377e-03
65	 5.828000e-10
	 5.000000e+00
	-4.733097e-11
	 4.990131e-01
	 5.000000e+00
	 1.463288e+00
	 5.000000e+00
	 2.748288e-03
	-5.816019e-12
	-3.190377e-03
66	 5.928000e-10
	 5.000000e+00
	-4.863717e-11
	 4.990131e-01
	 5.000000e+00
	 1.463288e+00
	 5.000000e+00
	 2.748288e-03
	-5.696496e-12
	-3.190377e-03
67	 6.028000e-10
	 5.000000e+00
	-4.967211e-11
	 4.990131e-01
	 5.000000e+00
	 1.463288e+00
	 5.000000e+00
	 2.748288e-03
	-5.572819e-12
	-3.190377e-03
68	 6.128000e-10
	 5.000000e+00
	-5.047390e-11
	 4.990131e-01
	 5.000000e+00
	 1.463288e+00
	 5.000000e+00
	 2.748288e-03
	-5.445631e-12
	-3.190377e-03
69	 6.228000e-10
	 5.000000e+00
	-5.102442e-11
	 4.990131e-01
	 5.000000e+00
	 1.463288e+00
	 5.000000e+00
	 2.748288e-03
	-5.315586e-12
	-3.190377e-03
70	 6.328000e-10
	 5.000000e+00
	-5.128603e-11
	 4.990131e-01
	 5.000000e+00
	 1.463288e+00
	 5.000000e+00
	 2.748288e-03
	-5.183250e-12
	-3.190377e-03
71	 6.428000e-10
	 5.000000e+00
	-5.133357e-11
	 4.990131e-01
	 5.000000e+00
	 1.463288e+00
	 5.000000e+00
	 2.748288e-03
	-5.049420e-12
	-3.190377e-03
72	 6.528000e-10
	 5.000000e+00
	-5.108538e-11
	 4.990131e-01
	 5.000000e+00
	 1.463288e+00
	 5.000000e+00
	 2.748288e-03
	-4.914713e-12
	-3.190377e-03
73	 6.628000e-10
	 5.000000e+00
	-5.056527e-11
	 4.990131e-01
	 5.000000e+00
	 1.463288e+00
	 5.000000e+00
	 2.748288e-03
	-4.779766e-12
	-3.190377e-03
74	 6.728000e-10
	 5.000000e+00
	-4.980741e-11
	 4.990131e-01
	 5.000000e+00
	 1.463288e+00
	 5.000000e+00
	 2.748288e-03
	-4.645334e-12
	-3.190377e-03
75	 6.828000e-10
	 5.000000e+00
	-4.877506e-11
	 4.990131e-01
	 5.000000e+00
	 1.463288e+00
	 5.000000e+00
	 2.748288e-03
	-4.512077e-12
	-3.190377e-03
76	 6.928000e-10
	 5.000000e+00
	-4.750917e-11
	 4.990131e-01
	 5.000000e+00
	 1.463288e+00
	 5.000000e+00
	 2.748288e-03
	-4.380750e-12
	-3.190377e-03
77	 7.028000e-10
	 5.000000e+00
	-4.594156e-11
	 4.990131e-01
	 5.000000e+00
	 1.463288e+00
	 5.000000e+00
	 2.748288e-03
	-4.251884e-12
	-3.190377e-03
78	 7.128000e-10
	 5.000000e+00
	-4.419365e-11
	 4.990131e-01
	 5.000000e+00
	 1.463288e+00
	 5.000000e+00
	 2.748288e-03
	-4.126311e-12
	-3.190377e-03
79	 7.228000e-10
	 5.000000e+00
	-4.215879e-11
	 4.990131e-01
	 5.000000e+00
	 1.463288e+00
	 5.000000e+00
	 2.748288e-03
	-4.004571e-12
	-3.190377e-03
80	 7.328000e-10
	 5.000000e+00
	-3.992260e-11
	 4.990131e-01
	 5.000000e+00
	 1.463288e+00
	 5.000000e+00
	 2.748288e-03
	-3.887353e-12
	-3.190377e-03
81	 7.428000e-10
	 5.000000e+00
	-3.747469e-11
	 4.990131e-01
	 5.000000e+00
	 1.463288e+00
	 5.000000e+00
	 2.748288e-03
	-3.775308e-12
	-3.190377e-03
82	 7.528000e-10
	 5.000000e+00
	-3.481685e-11
	 4.990131e-01
	 5.000000e+00
	 1.463288e+00
	 5.000000e+00
	 2.748288e-03
	-3.669024e-12
	-3.190377e-03
83	 7.628000e-10
	 5.000000e+00
	-3.194613e-11
	 4.990131e-01
	 5.000000e+00
	 1.463288e+00
	 5.000000e+00
	 2.748288e-03
	-3.569003e-12
	-3.190377e-03
84	 7.728000e-10
	 5.000000e+00
	-2.892880e-11
	 4.990131e-01
	 5.000000e+00
	 1.463288e+00
	 5.000000e+00
	 2.748288e-03
	-3.475866e-12
	-3.190377e-03
85	 7.828000e-10
	 5.000000e+00
	-2.573027e-11
	 4.990131e-01
	 5.000000e+00
	 1.463288e+00
	 5.000000e+00
	 2.748288e-03
	-3.390094e-12
	-3.190377e-03
86	 7.928000e-10
	 5.000000e+00
	-2.237565e-11
	 4.990131e-01
	 5.000000e+00
	 1.463288e+00
	 5.000000e+00
	 2.748288e-03
	-3.312125e-12
	-3.190377e-03
87	 8.028000e-10
	 5.000000e+00
	-1.892890e-11
	 4.990131e-01
	 5.000000e+00
	 1.463288e+00
	 5.000000e+00
	 2.748288e-03
	-3.242513e-12
	-3.190377e-03
88	 8.128000e-10
	 5.000000e+00
	-1.532728e-11
	 4.990131e-01
	 5.000000e+00
	 1.463288e+00
	 5.000000e+00
	 2.748288e-03
	-3.181559e-12
	-3.190377e-03
89	 8.228000e-10
	 5.000000e+00
	-1.165601e-11
	 4.990131e-01
	 5.000000e+00
	 1.463288e+00
	 5.000000e+00
	 2.748288e-03
	-3.129671e-12
	-3.190377e-03
90	 8.328000e-10
	 5.000000e+00
	-7.871345e-12
	 4.990131e-01
	 5.000000e+00
	 1.463288e+00
	 5.000000e+00
	 2.748288e-03
	-3.087057e-12
	-3.190377e-03
91	 8.428000e-10
	 5.000000e+00
	-4.062356e-12
	 4.990131e-01
	 5.000000e+00
	 1.463288e+00
	 5.000000e+00
	 2.748288e-03
	-3.054063e-12
	-3.190377e-03
92	 8.528000e-10
	 5.000000e+00
	-2.139976e-13
	 4.990131e-01
	 5.000000e+00
	 1.463288e+00
	 5.000000e+00
	 2.748288e-03
	-3.030936e-12
	-3.190377e-03
93	 8.628000e-10
	 5.000000e+00
	 3.680688e-12
	 4.990131e-01
	 5.000000e+00
	 1.463288e+00
	 5.000000e+00
	 2.748288e-03
	-3.017764e-12
	-3.190377e-03
94	 8.728000e-10
	 5.000000e+00
	 7.546704e-12
	 4.990131e-01
	 5.000000e+00
	 1.463288e+00
	 5.000000e+00
	 2.748288e-03
	-3.014734e-12
	-3.190377e-03
95	 8.828000e-10
	 5.000000e+00
	 1.143389e-11
	 4.990131e-01
	 5.000000e+00
	 1.463288e+00
	 5.000000e+00
	 2.748288e-03
	-3.021803e-12
	-3.190377e-03
96	 8.928000e-10
	 5.000000e+00
	 1.522594e-11
	 4.990131e-01
	 5.000000e+00
	 1.463288e+00
	 5.000000e+00
	 2.748288e-03
	-3.039125e-12
	-3.190377e-03
97	 9.028000e-10
	 5.000000e+00
	 1.900948e-11
	 4.990131e-01
	 5.000000e+00
	 1.463288e+00
	 5.000000e+00
	 2.748288e-03
	-3.066544e-12
	-3.190377e-03
98	 9.128000e-10
	 5.000000e+00
	 2.268257e-11
	 4.990131e-01
	 5.000000e+00
	 1.463288e+00
	 5.000000e+00
	 2.748288e-03
	-3.104037e-12
	-3.190377e-03
99	 9.228000e-10
	 5.000000e+00
	 2.627741e-11
	 4.990131e-01
	 5.000000e+00
	 1.463288e+00
	 5.000000e+00
	 2.748288e-03
	-3.151416e-12
	-3.190377e-03
100	 9.328000e-10
	 5.000000e+00
	 2.973732e-11
	 4.990131e-01
	 5.000000e+00
	 1.463288e+00
	 5.000000e+00
	 2.748288e-03
	-3.208531e-12
	-3.190377e-03
101	 9.428000e-10
	 5.000000e+00
	 3.305711e-11
	 4.990131e-01
	 5.000000e+00
	 1.463288e+00
	 5.000000e+00
	 2.748288e-03
	-3.275164e-12
	-3.190377e-03
102	 9.528000e-10
	 5.000000e+00
	 3.627622e-11
	 4.990131e-01
	 5.000000e+00
	 1.463288e+00
	 5.000000e+00
	 2.748288e-03
	-3.350858e-12
	-3.190377e-03
103	 9.628000e-10
	 5.000000e+00
	 3.925945e-11
	 4.990131e-01
	 5.000000e+00
	 1.463288e+00
	 5.000000e+00
	 2.748288e-03
	-3.435436e-12
	-3.190377e-03
104	 9.728000e-10
	 5.000000e+00
	 4.210042e-11
	 4.990131e-01
	 5.000000e+00
	 1.463288e+00
	 5.000000e+00
	 2.748288e-03
	-3.528414e-12
	-3.190377e-03
105	 9.828000e-10
	 5.000000e+00
	 4.469372e-11
	 4.990131e-01
	 5.000000e+00
	 1.463288e+00
	 5.000000e+00
	 2.748288e-03
	-3.629480e-12
	-3.190377e-03
106	 9.928000e-10
	 5.000000e+00
	 4.711057e-11
	 4.990131e-01
	 5.000000e+00
	 1.463288e+00
	 5.000000e+00
	 2.748288e-03
	-3.738065e-12
	-3.190377e-03
107	 1.002800e-09
	 5.000000e+00
	 4.929682e-11
	 4.990131e-01
	 5.000000e+00
	 1.463288e+00
	 5.000000e+00
	 2.748288e-03
	-3.853621e-12
	-3.190377e-03
108	 1.012800e-09
	 5.000000e+00
	 5.123872e-11
	 4.990131e-01
	 5.000000e+00
	 1.463288e+00
	 5.000000e+00
	 2.748288e-03
	-3.975589e-12
	-3.190377e-03
109	 1.022800e-09
	 5.000000e+00
	 5.290841e-11
	 4.990131e-01
	 5.000000e+00
	 1.463288e+00
	 5.000000e+00
	 2.748288e-03
	-4.103440e-12
	-3.190377e-03
110	 1.032800e-09
	 5.000000e+00
	 5.430601e-11
	 4.990131e-01
	 5.000000e+00
	 1.463288e+00
	 5.000000e+00
	 2.748288e-03
	-4.236598e-12
	-3.190377e-03
111	 1.042800e-09
	 5.000000e+00
	 5.550102e-11
	 4.990131e-01
	 5.000000e+00
	 1.463288e+00
	 5.000000e+00
	 2.748288e-03
	-4.374196e-12
	-3.190377e-03
112	 1.052800e-09
	 5.000000e+00
	 5.634170e-11
	 4.990131e-01
	 5.000000e+00
	 1.463288e+00
	 5.000000e+00
	 2.748288e-03
	-4.515732e-12
	-3.190377e-03
113	 1.062800e-09
	 5.000000e+00
	 5.691337e-11
	 4.990131e-01
	 5.000000e+00
	 1.463288e+00
	 5.000000e+00
	 2.748288e-03
	-4.660512e-12
	-3.190377e-03
114	 1.072800e-09
	 5.000000e+00
	 5.721486e-11
	 4.990131e-01
	 5.000000e+00
	 1.463288e+00
	 5.000000e+00
	 2.748288e-03
	-4.807748e-12
	-3.190377e-03
115	 1.082800e-09
	 5.000000e+00
	 5.723926e-11
	 4.990131e-01
	 5.000000e+00
	 1.463288e+00
	 5.000000e+00
	 2.748288e-03
	-4.956626e-12
	-3.190377e-03
116	 1.092800e-09
	 5.000000e+00
	 5.691789e-11
	 4.990131e-01
	 5.000000e+00
	 1.463288e+00
	 5.000000e+00
	 2.748288e-03
	-5.106541e-12
	-3.190377e-03
117	 1.102800e-09
	 5.000000e+00
	 5.637283e-11
	 4.990131e-01
	 5.000000e+00
	 1.463288e+00
	 5.000000e+00
	 2.748288e-03
	-5.256551e-12
	-3.190377e-03
118	 1.112800e-09
	 5.000000e+00
	 5.550495e-11
	 4.990131e-01
	 5.000000e+00
	 1.463288e+00
	 5.000000e+00
	 2.748288e-03
	-5.405933e-12
	-3.190377e-03
119	 1.122800e-09
	 5.000000e+00
	 5.432603e-11
	 4.990131e-01
	 5.000000e+00
	 1.463288e+00
	 5.000000e+00
	 2.748288e-03
	-5.554012e-12
	-3.190377e-03
120	 1.132800e-09
	 5.000000e+00
	 5.287231e-11
	 4.990131e-01
	 5.000000e+00
	 1.463288e+00
	 5.000000e+00
	 2.748288e-03
	-5.700025e-12
	-3.190377e-03
121	 1.142800e-09
	 5.000000e+00
	 5.114213e-11
	 4.990131e-01
	 5.000000e+00
	 1.463288e+00
	 5.000000e+00
	 2.748288e-03
	-5.843207e-12
	-3.190377e-03
122	 1.152800e-09
	 5.000000e+00
	 4.916471e-11
	 4.990131e-01
	 5.000000e+00
	 1.463288e+00
	 5.000000e+00
	 2.748288e-03
	-5.982729e-12
	-3.190377e-03
123	 1.162800e-09
	 5.000000e+00
	 4.689829e-11
	 4.990131e-01
	 5.000000e+00
	 1.463288e+00
	 5.000000e+00
	 2.748288e-03
	-6.117926e-12
	-3.190377e-03
124	 1.172800e-09
	 5.000000e+00
	 4.440852e-11
	 4.990131e-01
	 5.000000e+00
	 1.463288e+00
	 5.000000e+00
	 2.748288e-03
	-6.248015e-12
	-3.190377e-03
125	 1.182800e-09
	 5.000000e+00
	 4.166112e-11
	 4.990131e-01
	 5.000000e+00
	 1.463288e+00
	 5.000000e+00
	 2.748288e-03
	-6.372339e-12
	-3.190377e-03
126	 1.192800e-09
	 5.000000e+00
	 3.867386e-11
	 4.990131e-01
	 5.000000e+00
	 1.463288e+00
	 5.000000e+00
	 2.748288e-03
	-6.490286e-12
	-3.190377e-03
127	 1.202800e-09
	 5.000000e+00
	 3.548664e-11
	 4.990131e-01
	 5.000000e+00
	 1.463288e+00
	 5.000000e+00
	 2.748288e-03
	-6.601192e-12
	-3.190377e-03
128	 1.212800e-09
	 5.000000e+00
	 3.210736e-11
	 4.990131e-01
	 5.000000e+00
	 1.463288e+00
	 5.000000e+00
	 2.748288e-03
	-6.704428e-12
	-3.190377e-03
129	 1.222800e-09
	 5.000000e+00
	 2.856922e-11
	 4.990131e-01
	 5.000000e+00
	 1.463288e+00
	 5.000000e+00
	 2.748288e-03
	-6.799350e-12
	-3.190377e-03
130	 1.232800e-09
	 5.000000e+00
	 2.479474e-11
	 4.990131e-01
	 5.000000e+00
	 1.463288e+00
	 5.000000e+00
	 2.748288e-03
	-6.885644e-12
	-3.190377e-03
131	 1.242800e-09
	 5.000000e+00
	 2.094392e-11
	 4.990131e-01
	 5.000000e+00
	 1.463288e+00
	 5.000000e+00
	 2.748288e-03
	-6.962667e-12
	-3.190377e-03
132	 1.252800e-09
	 5.000000e+00
	 1.696124e-11
	 4.990131e-01
	 5.000000e+00
	 1.463288e+00
	 5.000000e+00
	 2.748288e-03
	-7.029945e-12
	-3.190377e-03
133	 1.262800e-09
	 5.000000e+00
	 1.284448e-11
	 4.990131e-01
	 5.000000e+00
	 1.463288e+00
	 5.000000e+00
	 2.748288e-03
	-7.087169e-12
	-3.190377e-03
134	 1.272800e-09
	 5.000000e+00
	 8.663256e-12
	 4.990131e-01
	 5.000000e+00
	 1.463288e+00
	 5.000000e+00
	 2.748288e-03
	-7.133958e-12
	-3.190377e-03
135	 1.282800e-09
	 5.000000e+00
	 4.395736e-12
	 4.990131e-01
	 5.000000e+00
	 1.463288e+00
	 5.000000e+00
	 2.748288e-03
	-7.170076e-12
	-3.190377e-03
136	 1.292800e-09
	 5.000000e+00
	 1.017479e-13
	 4.990131e-01
	 5.000000e+00
	 1.463288e+00
	 5.000000e+00
	 2.748288e-03
	-7.195253e-12
	-3.190377e-03
137	 1.302800e-09
	 5.000000e+00
	-4.215563e-12
	 4.990131e-01
	 5.000000e+00
	 1.463288e+00
	 5.000000e+00
	 2.748288e-03
	-7.209299e-12
	-3.190377e-03
138	 1.312800e-09
	 5.000000e+00
	-8.540292e-12
	 4.990131e-01
	 5.000000e+00
	 1.463288e+00
	 5.000000e+00
	 2.748288e-03
	-7.212116e-12
	-3.190377e-03
139	 1.322800e-09
	 5.000000e+00
	-1.283138e-11
	 4.990131e-01
	 5.000000e+00
	 1.463288e+00
	 5.000000e+00
	 2.748288e-03
	-7.203606e-12
	-3.190377e-03
140	 1.332800e-09
	 5.000000e+00
	-1.707532e-11
	 4.990131e-01
	 5.000000e+00
	 1.463288e+00
	 5.000000e+00
	 2.748288e-03
	-7.183745e-12
	-3.190377e-03
141	 1.342800e-09
	 5.000000e+00
	-2.127150e-11
	 4.990131e-01
	 5.000000e+00
	 1.463288e+00
	 5.000000e+00
	 2.748288e-03
	-7.152634e-12
	-3.190377e-03
142	 1.352800e-09
	 5.000000e+00
	-2.536496e-11
	 4.990131e-01
	 5.000000e+00
	 1.463288e+00
	 5.000000e+00
	 2.748288e-03
	-7.110350e-12
	-3.190377e-03
143	 1.362800e-09
	 5.000000e+00
	-2.936245e-11
	 4.990131e-01
	 5.000000e+00
	 1.463288e+00
	 5.000000e+00
	 2.748288e-03
	-7.057089e-12
	-3.190377e-03
144	 1.372800e-09
	 5.000000e+00
	-3.318738e-11
	 4.990131e-01
	 5.000000e+00
	 1.463288e+00
	 5.000000e+00
	 2.748288e-03
	-6.992948e-12
	-3.190377e-03
145	 1.382800e-09
	 5.000000e+00
	-3.689632e-11
	 4.990131e-01
	 5.000000e+00
	 1.463288e+00
	 5.000000e+00
	 2.748288e-03
	-6.918280e-12
	-3.190377e-03
146	 1.392800e-09
	 5.000000e+00
	-4.042365e-11
	 4.990131e-01
	 5.000000e+00
	 1.463288e+00
	 5.000000e+00
	 2.748288e-03
	-6.833412e-12
	-3.190377e-03
147	 1.402800e-09
	 5.000000e+00
	-4.378226e-11
	 4.990131e-01
	 5.000000e+00
	 1.463288e+00
	 5.000000e+00
	 2.748288e-03
	-6.738796e-12
	-3.190377e-03
148	 1.412800e-09
	 5.000000e+00
	-4.691078e-11
	 4.990131e-01
	 5.000000e+00
	 1.463288e+00
	 5.000000e+00
	 2.748288e-03
	-6.634816e-12
	-3.190377e-03
149	 1.422800e-09
	 5.000000e+00
	-4.977954e-11
	 4.990131e-01
	 5.000000e+00
	 1.463288e+00
	 5.000000e+00
	 2.748288e-03
	-6.521835e-12
	-3.190377e-03
150	 1.432800e-09
	 5.000000e+00
	-5.249551e-11
	 4.990131e-01
	 5.000000e+00
	 1.463288e+00
	 5.000000e+00
	 2.748288e-03
	-6.400636e-12
	-3.190377e-03
151	 1.442800e-09
	 5.000000e+00
	-5.487387e-11
	 4.990131e-01
	 5.000000e+00
	 1.463288e+00
	 5.000000e+00
	 2.748288e-03
	-6.271614e-12
	-3.190377e-03
152	 1.452800e-09
	 5.000000e+00
	-5.702281e-11
	 4.990131e-01
	 5.000000e+00
	 1.463288e+00
	 5.000000e+00
	 2.748288e-03
	-6.135463e-12
	-3.190377e-03
153	 1.462800e-09
	 5.000000e+00
	-5.887693e-11
	 4.990131e-01
	 5.000000e+00
	 1.463288e+00
	 5.000000e+00
	 2.748288e-03
	-5.992830e-12
	-3.190377e-03
154	 1.472800e-09
	 5.000000e+00
	-6.045946e-11
	 4.990131e-01
	 5.000000e+00
	 1.463288e+00
	 5.000000e+00
	 2.748288e-03
	-5.844476e-12
	-3.190377e-03
155	 1.482800e-09
	 5.000000e+00
	-6.169458e-11
	 4.990131e-01
	 5.000000e+00
	 1.463288e+00
	 5.000000e+00
	 2.748288e-03
	-5.691006e-12
	-3.190377e-03
156	 1.492800e-09
	 5.000000e+00
	-6.266450e-11
	 4.990131e-01
	 5.000000e+00
	 1.463288e+00
	 5.000000e+00
	 2.748288e-03
	-5.533290e-12
	-3.190377e-03
157	 1.502800e-09
	 5.000000e+00
	-6.329129e-11
	 4.990131e-01
	 5.000000e+00
	 1.463288e+00
	 5.000000e+00
	 2.748288e-03
	-5.372065e-12
	-3.190377e-03
158	 1.512800e-09
	 5.000000e+00
	-6.359774e-11
	 4.990131e-01
	 5.000000e+00
	 1.463288e+00
	 5.000000e+00
	 2.748288e-03
	-5.208126e-12
	-3.190377e-03
159	 1.522800e-09
	 5.000000e+00
	-6.361039e-11
	 4.990131e-01
	 5.000000e+00
	 1.463288e+00
	 5.000000e+00
	 2.748288e-03
	-5.042399e-12
	-3.190377e-03
160	 1.532800e-09
	 5.000000e+00
	-6.323578e-11
	 4.990131e-01
	 5.000000e+00
	 1.463288e+00
	 5.000000e+00
	 2.748288e-03
	-4.875552e-12
	-3.190377e-03
161	 1.542800e-09
	 5.000000e+00
	-6.260359e-11
	 4.990131e-01
	 5.000000e+00
	 1.463288e+00
	 5.000000e+00
	 2.748288e-03
	-4.708604e-12
	-3.190377e-03
162	 1.552800e-09
	 5.000000e+00
	-6.160270e-11
	 4.990131e-01
	 5.000000e+00
	 1.463288e+00
	 5.000000e+00
	 2.748288e-03
	-4.542320e-12
	-3.190377e-03
163	 1.562800e-09
	 5.000000e+00
	-6.028950e-11
	 4.990131e-01
	 5.000000e+00
	 1.463288e+00
	 5.000000e+00
	 2.748288e-03
	-4.377555e-12
	-3.190377e-03
164	 1.572800e-09
	 5.000000e+00
	-5.868797e-11
	 4.990131e-01
	 5.000000e+00
	 1.463288e+00
	 5.000000e+00
	 2.748288e-03
	-4.215249e-12
	-3.190377e-03
165	 1.582800e-09
	 5.000000e+00
	-5.671871e-11
	 4.990131e-01
	 5.000000e+00
	 1.463288e+00
	 5.000000e+00
	 2.748288e-03
	-4.056082e-12
	-3.190377e-03
166	 1.592800e-09
	 5.000000e+00
	-5.451041e-11
	 4.990131e-01
	 5.000000e+00
	 1.463288e+00
	 5.000000e+00
	 2.748288e-03
	-3.901034e-12
	-3.190377e-03
167	 1.602800e-09
	 5.000000e+00
	-5.199079e-11
	 4.990131e-01
	 5.000000e+00
	 1.463288e+00
	 5.000000e+00
	 2.748288e-03
	-3.750900e-12
	-3.190377e-03
168	 1.612800e-09
	 5.000000e+00
	-4.918780e-11
	 4.990131e-01
	 5.000000e+00
	 1.463288e+00
	 5.000000e+00
	 2.748288e-03
	-3.606452e-12
	-3.190377e-03
169	 1.622800e-09
	 5.000000e+00
	-4.610073e-11
	 4.990131e-01
	 5.000000e+00
	 1.463288e+00
	 5.000000e+00
	 2.748288e-03
	-3.468390e-12
	-3.190377e-03
170	 1.632800e-09
	 5.000000e+00
	-4.277530e-11
	 4.990131e-01
	 5.000000e+00
	 1.463288e+00
	 5.000000e+00
	 2.748288e-03
	-3.337476e-12
	-3.190377e-03
171	 1.642800e-09
	 5.000000e+00
	-3.923575e-11
	 4.990131e-01
	 5.000000e+00
	 1.463288e+00
	 5.000000e+00
	 2.748288e-03
	-3.214493e-12
	-3.190377e-03
172	 1.652800e-09
	 5.000000e+00
	-3.546631e-11
	 4.990131e-01
	 5.000000e+00
	 1.463288e+00
	 5.000000e+00
	 2.748288e-03
	-3.100101e-12
	-3.190377e-03
173	 1.662800e-09
	 5.000000e+00
	-3.148147e-11
	 4.990131e-01
	 5.000000e+00
	 1.463288e+00
	 5.000000e+00
	 2.748288e-03
	-2.994872e-12
	-3.190377e-03
174	 1.672800e-09
	 5.000000e+00
	-2.731868e-11
	 4.990131e-01
	 5.000000e+00
	 1.463288e+00
	 5.000000e+00
	 2.748288e-03
	-2.899382e-12
	-3.190377e-03
175	 1.682800e-09
	 5.000000e+00
	-2.302211e-11
	 4.990131e-01
	 5.000000e+00
	 1.463288e+00
	 5.000000e+00
	 2.748288e-03
	-2.814255e-12
	-3.190377e-03
176	 1.692800e-09
	 5.000000e+00
	-1.854973e-11
	 4.990131e-01
	 5.000000e+00
	 1.463288e+00
	 5.000000e+00
	 2.748288e-03
	-2.739884e-12
	-3.190377e-03
177	 1.702800e-09
	 5.000000e+00
	-1.396648e-11
	 4.990131e-01
	 5.000000e+00
	 1.463288e+00
	 5.000000e+00
	 2.748288e-03
	-2.676694e-12
	-3.190377e-03
178	 1.712800e-09
	 5.000000e+00
	-9.329577e-12
	 4.990131e-01
	 5.000000e+00
	 1.463288e+00
	 5.000000e+00
	 2.748288e-03
	-2.625194e-12
	-3.190377e-03
179	 1.722800e-09
	 5.000000e+00
	-4.589010e-12
	 4.990131e-01
	 5.000000e+00
	 1.463288e+00
	 5.000000e+00
	 2.748288e-03
	-2.585638e-12
	-3.190377e-03
180	 1.732800e-09
	 5.000000e+00
	 2.071114e-13
	 4.990131e-01
	 5.000000e+00
	 1.463288e+00
	 5.000000e+00
	 2.748288e-03
	-2.558236e-12
	-3.190377e-03
181	 1.742800e-09
	 5.000000e+00
	 5.007786e-12
	 4.990131e-01
	 5.000000e+00
	 1.463288e+00
	 5.000000e+00
	 2.748288e-03
	-2.543226e-12
	-3.190377e-03
182	 1.752800e-09
	 5.000000e+00
	 9.830198e-12
	 4.990131e-01
	 5.000000e+00
	 1.463288e+00
	 5.000000e+00
	 2.748288e-03
	-2.540685e-12
	-3.190377e-03
183	 1.762800e-09
	 5.000000e+00
	 1.459992e-11
	 4.990131e-01
	 5.000000e+00
	 1.463288e+00
	 5.000000e+00
	 2.748288e-03
	-2.550746e-12
	-3.190377e-03
184	 1.772800e-09
	 5.000000e+00
	 1.931636e-11
	 4.990131e-01
	 5.000000e+00
	 1.463288e+00
	 5.000000e+00
	 2.748288e-03
	-2.573446e-12
	-3.190377e-03
185	 1.782800e-09
	 5.000000e+00
	 2.396360e-11
	 4.990131e-01
	 5.000000e+00
	 1.463288e+00
	 5.000000e+00
	 2.748288e-03
	-2.608723e-12
	-3.190377e-03
186	 1.792800e-09
	 5.000000e+00
	 2.851757e-11
	 4.990131e-01
	 5.000000e+00
	 1.463288e+00
	 5.000000e+00
	 2.748288e-03
	-2.656432e-12
	-3.190377e-03
187	 1.802800e-09
	 5.000000e+00
	 3.294174e-11
	 4.990131e-01
	 5.000000e+00
	 1.463288e+00
	 5.000000e+00
	 2.748288e-03
	-2.716399e-12
	-3.190377e-03
188	 1.812800e-09
	 5.000000e+00
	 3.724484e-11
	 4.990131e-01
	 5.000000e+00
	 1.463288e+00
	 5.000000e+00
	 2.748288e-03
	-2.788291e-12
	-3.190377e-03
189	 1.822800e-09
	 5.000000e+00
	 4.133780e-11
	 4.990131e-01
	 5.000000e+00
	 1.463288e+00
	 5.000000e+00
	 2.748288e-03
	-2.871909e-12
	-3.190377e-03
190	 1.832800e-09
	 5.000000e+00
	 4.526092e-11
	 4.990131e-01
	 5.000000e+00
	 1.463288e+00
	 5.000000e+00
	 2.748288e-03
	-2.966840e-12
	-3.190377e-03
191	 1.842800e-09
	 5.000000e+00
	 4.895615e-11
	 4.990131e-01
	 5.000000e+00
	 1.463288e+00
	 5.000000e+00
	 2.748288e-03
	-3.072689e-12
	-3.190377e-03
192	 1.852800e-09
	 5.000000e+00
	 5.243291e-11
	 4.990131e-01
	 5.000000e+00
	 1.463288e+00
	 5.000000e+00
	 2.748288e-03
	-3.188931e-12
	-3.190377e-03
193	 1.862800e-09
	 5.000000e+00
	 5.564875e-11
	 4.990131e-01
	 5.000000e+00
	 1.463288e+00
	 5.000000e+00
	 2.748288e-03
	-3.315044e-12
	-3.190377e-03
194	 1.872800e-09
	 5.000000e+00
	 5.860937e-11
	 4.990131e-01
	 5.000000e+00
	 1.463288e+00