Title:  // Generated for: spectre 
Date: Fri Aug 12 16:48:43 2022
Plotname: Oscillator Period and Frequency
Flags: real
No. Variables: 2
No. Points: 1
Command: btdsim version 3.5.3
Variables: 
	0	period	s
	1	frequency	Hz
Values:
0	 8.961764e-10
	 1.115852e+09
Title:  // Generated for: spectre 
Date: Fri Aug 12 16:48:43 2022
Plotname: Harmonic Balance Oscillator Steady State Analysis
Flags: real
No. Variables: 11
No. Points: 25
Command: btdsim version 3.5.3
Variables: 
	0	time	s
	1	ip(v0)	A
	2	net20	V
	3	vout	V
	4	net37	V
	5	net23	V
	6	net14	V
	7	vcc!	V
	8	L1#branch	A
	9	L0#branch	A
	10	v0#branch	A
Values:
0	 0.000000e+00
	-5.662477e-03
	 1.316418e+00
	-3.715528e+00
	 8.073989e-01
	 7.004035e+00
	 2.971742e+00
	 5.000000e+00
	-7.807800e-02
	-8.348695e-02
	-5.662477e-03
1	 3.734068e-11
	-3.169558e-03
	 8.256567e-01
	-4.191456e+00
	 7.963452e-01
	 7.177857e+00
	 2.776101e+00
	 5.000000e+00
	-4.122515e-02
	-4.411672e-02
	-3.169558e-03
2	 7.468136e-11
	-2.115904e-03
	 6.512579e-01
	-4.349788e+00
	 7.578421e-01
	 7.221820e+00
	 2.508263e+00
	 5.000000e+00
	-1.141540e-03
	-2.945977e-03
	-2.115904e-03
3	 1.120220e-10
	-1.671579e-03
	 7.575100e-01
	-4.227467e+00
	 7.104609e-01
	 7.095705e+00
	 2.153680e+00
	 5.000000e+00
	 3.909538e-02
	 3.777959e-02
	-1.671579e-03
4	 1.493627e-10
	-3.171796e-03
	 1.153367e+00
	-3.816456e+00
	 6.792624e-01
	 6.836568e+00
	 1.763134e+00
	 5.000000e+00
	 7.719089e-02
	 7.442371e-02
	-3.171796e-03
5	 1.867034e-10
	-4.091124e-03
	 1.864069e+00
	-3.092827e+00
	 6.762037e-01
	 6.527830e+00
	 1.461222e+00
	 5.000000e+00
	 1.098552e-01
	 1.062065e-01
	-4.091124e-03
6	 2.240441e-10
	-6.242969e-03
	 2.650228e+00
	-2.296540e+00
	 6.957201e-01
	 6.002314e+00
	 1.098712e+00
	 5.000000e+00
	 1.356266e-01
	 1.298712e-01
	-6.242969e-03
7	 2.613848e-10
	-8.877038e-03
	 3.698353e+00
	-1.241774e+00
	 7.618614e-01
	 5.548890e+00
	 9.615832e-01
	 5.000000e+00
	 1.527604e-01
	 1.443882e-01
	-8.877038e-03
8	 2.987255e-10
	-1.169402e-02
	 4.695641e+00
	-2.417067e-01
	 8.629001e-01
	 4.956718e+00
	 8.394416e-01
	 5.000000e+00
	 1.602821e-01
	 1.491081e-01
	-1.169402e-02
9	 3.360661e-10
	-1.144909e-02
	 6.123894e+00
	 1.184960e+00
	 9.921524e-01
	 4.801084e+00
	 1.193671e+00
	 5.000000e+00
	 1.568982e-01
	 1.459249e-01
	-1.144909e-02
10	 3.734068e-10
	-4.793941e-04
	 7.285222e+00
	 2.339358e+00
	 9.916492e-01
	 4.393503e+00
	 1.089278e+00
	 5.000000e+00
	 1.401139e-01
	 1.401234e-01
	-4.793941e-04
11	 4.107475e-10
	 1.085279e-03
	 7.715459e+00
	 2.760119e+00
	 8.561199e-01
	 3.361095e+00
	 1.246732e-01
	 5.000000e+00
	 1.168888e-01
	 1.185835e-01
	 1.085279e-03
12	 4.480882e-10
	-2.041260e-03
	 8.733853e+00
	 3.766441e+00
	 7.869535e-01
	 3.235193e+00
	 3.288963e-02
	 5.000000e+00
	 8.707087e-02
	 8.565049e-02
	-2.041260e-03
13	 4.854289e-10
	 1.086934e-03
	 9.197415e+00
	 4.214769e+00
	 7.073132e-01
	 2.934837e+00
	-2.056221e-01
	 5.000000e+00
	 4.921938e-02
	 5.095702e-02
	 1.086934e-03
14	 5.227695e-10
	-1.344981e-03
	 9.317108e+00
	 4.318644e+00
	 6.302552e-01
	 2.720780e+00
	-3.687464e-01
	 5.000000e+00
	 9.765019e-03
	 9.091132e-03
	-1.344981e-03
15	 5.601102e-10
	 3.334153e-06
	 9.415200e+00
	 4.400241e+00
	 5.815803e-01
	 2.954068e+00
	-8.145708e-02
	 5.000000e+00
	-3.153710e-02
	-3.089859e-02
	 3.334153e-06
16	 5.974509e-10
	-1.642640e-04
	 8.812876e+00
	 3.782562e+00
	 5.088744e-01
	 2.923355e+00
	-6.276002e-02
	 5.000000e+00
	-7.013688e-02
	-6.966830e-02
	-1.642640e-04
17	 6.347916e-10
	-1.350379e-03
	 8.343683e+00
	 3.300167e+00
	 4.744951e-01
	 3.445521e+00
	 4.871981e-01
	 5.000000e+00
	-1.034887e-01
	-1.042750e-01
	-1.350379e-03
18	 6.721323e-10
	 9.754631e-04
	 7.366495e+00
	 2.312254e+00
	 4.178438e-01
	 3.791383e+00
	 8.634795e-01
	 5.000000e+00
	-1.307596e-01
	-1.292671e-01
	 9.754631e-04
19	 7.094730e-10
	-2.674861e-03
	 6.168141e+00
	 1.107619e+00
	 3.786614e-01
	 4.163568e+00
	 1.229339e+00
	 5.000000e+00
	-1.470014e-01
	-1.492049e-01
	-2.674861e-03
20	 7.468136e-10
	-5.787546e-03
	 5.092213e+00
	 2.948890e-02
	 4.126410e-01
	 4.816792e+00
	 1.804422e+00
	 5.000000e+00
	-1.530845e-01
	-1.584726e-01
	-5.787546e-03
21	 7.841543e-10
	-9.819617e-03
	 3.826608e+00
	-1.233822e+00
	 4.990597e-01
	 5.318620e+00
	 2.197580e+00
	 5.000000e+00
	-1.479295e-01
	-1.573989e-01
	-9.819617e-03
22	 8.214950e-10
	-1.218992e-02
	 2.925321e+00
	-2.128729e+00
	 6.463687e-01
	 6.097539e+00
	 2.776952e+00
	 5.000000e+00
	-1.325151e-01
	-1.444271e-01
	-1.218992e-02
23	 8.588357e-10
	-8.991366e-03
	 2.064011e+00
	-2.980529e+00
	 7.634561e-01
	 6.670925e+00
	 3.018840e+00
	 5.000000e+00
	-1.092019e-01
	-1.179457e-01
	-8.991366e-03
24	 8.961764e-10
	-5.662477e-03
	 1.316418e+00
	-3.715528e+00
	 8.073989e-01
	 7.004035e+00
	 2.971742e+00
	 5.000000e+00
	-7.807800e-02
	-8.348695e-02
	-5.662477e-03
Title:  // Generated for: spectre 
Date: Fri Aug 12 16:48:43 2022
Plotname: Harmonic Balance Oscillator Steady State Spectrum
Flags: complex
No. Variables: 11
No. Points: 11
Command: btdsim version 3.5.3
Variables: 
	0	freq	Hz
	1	ip(v0)	A
	2	net20	V
	3	vout	V
	4	net37	V
	5	net23	V
	6	net14	V
	7	vcc!	V
	8	L1#branch	A
	9	L0#branch	A
	10	v0#branch	A
Values:
0	 0.000000e+00,  0.000000e+00
	-4.159922e-03,  0.000000e+00
	 5.000000e+00,  0.000000e+00
	 1.454011e-16,  0.000000e+00
	 6.831424e-01,  0.000000e+00
	 5.000000e+00,  0.000000e+00
	 1.276401e+00,  0.000000e+00
	 5.000000e+00,  0.000000e+00
	 3.694472e-03,  0.000000e+00
	-5.000001e-12,  0.000000e+00
	-4.159922e-03,  0.000000e+00
1	 1.115852e+09,  0.000000e+00
	-2.163499e-03,  1.578064e-03
	-3.721589e+00,  2.307669e+00
	-3.753740e+00,  2.254129e+00
	-5.133640e-02, -1.753010e-01
	 1.838206e+00, -1.186592e+00
	 1.381237e+00, -2.625790e-01
	 0.000000e+00,  0.000000e+00
	-8.228621e-02, -1.327034e-01
	-8.462237e-02, -1.310925e-01
	-2.163499e-03,  1.578064e-03
2	 2.231704e+09,  0.000000e+00
	 4.978102e-04, -3.816040e-03
	 8.876076e-04, -3.828295e-02
	 1.160565e-03, -3.827467e-02
	 1.235459e-01,  4.534781e-02
	 1.077548e-01,  3.215668e-02
	 2.697402e-01,  3.366050e-01
	 0.000000e+00,  0.000000e+00
	 6.825414e-04,  1.582503e-05
	 1.146634e-03, -3.842291e-03
	 4.978102e-04, -3.816040e-03
3	 3.347555e+09,  0.000000e+00
	-1.589223e-03, -2.188379e-03
	 4.260913e-02, -2.645550e-02
	 4.273394e-02, -2.625233e-02
	 5.696826e-02, -2.913984e-02
	 7.014529e-02, -5.412262e-02
	 9.453653e-02, -1.156015e-01
	 0.000000e+00,  0.000000e+00
	 3.144476e-04,  5.064482e-04
	-1.286593e-03, -1.667481e-03
	-1.589223e-03, -2.188379e-03
4	 4.463407e+09,  0.000000e+00
	 1.245713e-03,  3.770104e-04
	-7.027319e-03,  3.739941e-02
	-7.160586e-03,  3.737388e-02
	-9.417120e-03,  2.082862e-02
	-1.706887e-02,  5.160615e-02
	-6.208129e-02,  8.037842e-02
	 0.000000e+00,  0.000000e+00
	-3.333944e-04, -6.264455e-05
	 9.200789e-04,  3.043185e-04
	 1.245713e-03,  3.770104e-04
5	 5.579259e+09,  0.000000e+00
	 6.919528e-04, -9.679090e-04
	 3.961651e-02,  2.824009e-02
	 3.953563e-02,  2.835287e-02
	 1.252729e-02,  1.134148e-02
	 4.843182e-02,  3.380115e-02
	 6.758881e-02,  4.324282e-02
	 0.000000e+00,  0.000000e+00
	-2.013954e-04,  2.825269e-04
	 4.821088e-04, -6.907874e-04
	 6.919528e-04, -9.679090e-04
6	 6.695111e+09,  0.000000e+00
	-5.936382e-04,  6.388832e-04
	-3.260527e-02, -3.022109e-02
	-3.253325e-02, -3.029842e-02
	-6.804064e-03, -7.785774e-03
	-3.788994e-02, -3.429161e-02
	-5.158913e-02, -4.195763e-02
	 0.000000e+00,  0.000000e+00
	 1.796025e-04, -1.937716e-04
	-4.075870e-04,  4.503563e-04
	-5.936382e-04,  6.388832e-04
7	 7.810963e+09,  0.000000e+00
	 7.476309e-04,  2.727774e-05
	-9.953306e-04,  4.616142e-02
	-1.089384e-03,  4.615920e-02
	-1.020970e-03,  7.477108e-03
	-1.476788e-03,  5.035318e-02
	-4.062414e-03,  5.729738e-02
	 0.000000e+00,  0.000000e+00
	-2.351445e-04, -5.070175e-06
	 5.129942e-04,  1.504540e-05
	 7.476309e-04,  2.727774e-05
8	 8.926814e+09,  0.000000e+00
	-3.286022e-04, -3.355952e-04
	 2.377580e-02, -2.330415e-02
	 2.381727e-02, -2.326168e-02
	 3.253735e-03, -2.628577e-03
	 2.530027e-02, -2.559377e-02
	 2.738658e-02, -3.267032e-02
	 0.000000e+00,  0.000000e+00
	 1.038716e-04,  1.059739e-04
	-2.281539e-04, -2.255375e-04
	-3.286022e-04, -3.355952e-04
9	 1.004267e+10,  0.000000e+00
	 5.025310e-04,  8.379594e-04
	-6.835882e-02,  4.193082e-02
	-6.842510e-02,  4.182238e-02
	-6.915504e-03,  3.358684e-03
	-7.088607e-02,  4.355619e-02
	-6.987345e-02,  4.341558e-02
	 0.000000e+00,  0.000000e+00
	-1.661286e-04, -2.708355e-04
	 3.451365e-04,  5.616969e-04
	 5.025310e-04,  8.379594e-04
10	 1.115852e+10,  0.000000e+00
	-5.132299e-04, -4.451911e-04
	 4.010482e-02, -4.749006e-02
	 4.017247e-02, -4.743276e-02
	 3.455246e-03, -3.340849e-03
	 4.151776e-02, -4.896534e-02
	 4.245897e-02, -4.880567e-02
	 0.000000e+00,  0.000000e+00
	 1.693387e-04,  1.430047e-04
	-3.491985e-04, -2.960857e-04
	-5.132299e-04, -4.451911e-04
Title:  // Generated for: spectre 
Date: Fri Aug 12 16:48:46 2022
Plotname: Oscillator Period and Frequency
Flags: real
No. Variables: 2
No. Points: 1
Command: btdsim version 3.5.3
Variables: 
	0	period	s
	1	frequency	Hz
Values:
0	 8.963279e-10
	 1.115663e+09
Title:  // Generated for: spectre 
Date: Fri Aug 12 16:48:46 2022
Plotname: Harmonic Balance Oscillator Steady State Analysis
Flags: real
No. Variables: 11
No. Points: 25
Command: btdsim version 3.5.3
Variables: 
	0	time	s
	1	ip(v0)	A
	2	net20	V
	3	vout	V
	4	net37	V
	5	net23	V
	6	net14	V
	7	vcc!	V
	8	L1#branch	A
	9	L0#branch	A
	10	v0#branch	A
Values:
0	 0.000000e+00
	-1.231592e-03
	 9.329928e+00
	 4.330373e+00
	 6.261824e-01
	 2.728369e+00
	-3.505257e-01
	 5.000000e+00
	 7.015759e-03
	 6.452984e-03
	-1.231592e-03
1	 3.734700e-11
	-5.792504e-05
	 9.385349e+00
	 4.369344e+00
	 5.764123e-01
	 2.948154e+00
	-8.057904e-02
	 5.000000e+00
	-3.417768e-02
	-3.360053e-02
	-5.792504e-05
2	 7.469399e-11
	-1.869042e-04
	 8.792417e+00
	 3.761152e+00
	 5.062568e-01
	 2.956801e+00
	-2.125446e-02
	 5.000000e+00
	-7.255213e-02
	-7.211138e-02
	-1.869042e-04
3	 1.120410e-10
	-1.244465e-03
	 8.277867e+00
	 3.233550e+00
	 4.698980e-01
	 3.457893e+00
	 5.067813e-01
	 5.000000e+00
	-1.055385e-01
	-1.062213e-01
	-1.244465e-03
4	 1.493880e-10
	 7.482280e-04
	 7.306684e+00
	 2.251907e+00
	 4.157692e-01
	 3.829895e+00
	 9.049034e-01
	 5.000000e+00
	-1.321516e-01
	-1.308914e-01
	 7.482280e-04
5	 1.867350e-10
	-2.323167e-03
	 6.110407e+00
	 1.049537e+00
	 3.758165e-01
	 4.217771e+00
	 1.290709e+00
	 5.000000e+00
	-1.479279e-01
	-1.497874e-01
	-2.323167e-03
6	 2.240820e-10
	-5.717967e-03
	 4.987068e+00
	-7.568362e-02
	 4.043704e-01
	 4.826162e+00
	 1.817852e+00
	 5.000000e+00
	-1.532116e-01
	-1.585318e-01
	-5.717967e-03
7	 2.614290e-10
	-1.017453e-02
	 3.758159e+00
	-1.301959e+00
	 4.959070e-01
	 5.362637e+00
	 2.237012e+00
	 5.000000e+00
	-1.472044e-01
	-1.570336e-01
	-1.017453e-02
8	 2.987760e-10
	-1.211599e-02
	 2.870582e+00
	-2.182944e+00
	 6.460126e-01
	 6.144263e+00
	 2.807011e+00
	 5.000000e+00
	-1.312590e-01
	-1.431009e-01
	-1.211599e-02
9	 3.361230e-10
	-8.806595e-03
	 2.008686e+00
	-3.035117e+00
	 7.602811e-01
	 6.696994e+00
	 3.019134e+00
	 5.000000e+00
	-1.074078e-01
	-1.159668e-01
	-8.806595e-03
10	 3.734700e-10
	-5.513464e-03
	 1.276890e+00
	-3.754143e+00
	 8.016908e-01
	 7.021194e+00
	 2.961979e+00
	 5.000000e+00
	-7.583502e-02
	-8.109373e-02
	-5.513464e-03
11	 4.108170e-10
	-3.080449e-03
	 8.049196e-01
	-4.211167e+00
	 7.892168e-01
	 7.185760e+00
	 2.758488e+00
	 5.000000e+00
	-3.868942e-02
	-4.148968e-02
	-3.080449e-03
12	 4.481640e-10
	-2.091710e-03
	 6.474845e-01
	-4.352492e+00
	 7.504260e-01
	 7.217341e+00
	 2.482615e+00
	 5.000000e+00
	 1.509516e-03
	-2.675205e-04
	-2.091710e-03
13	 4.855110e-10
	-1.727935e-03
	 7.793928e-01
	-4.204544e+00
	 7.044568e-01
	 7.088278e+00
	 2.130376e+00
	 5.000000e+00
	 4.168575e-02
	 4.031652e-02
	-1.727935e-03
14	 5.228580e-10
	-3.053612e-03
	 1.193759e+00
	-3.775155e+00
	 6.733305e-01
	 6.821374e+00
	 1.743176e+00
	 5.000000e+00
	 7.946415e-02
	 7.681764e-02
	-3.053612e-03
15	 5.602049e-10
	-4.190494e-03
	 1.902243e+00
	-3.053883e+00
	 6.700454e-01
	 6.487922e+00
	 1.429332e+00
	 5.000000e+00
	 1.117869e-01
	 1.080428e-01
	-4.190494e-03
16	 5.975519e-10
	-6.453259e-03
	 2.719328e+00
	-2.226870e+00
	 6.938769e-01
	 5.977662e+00
	 1.091773e+00
	 5.000000e+00
	 1.370623e-01
	 1.310976e-01
	-6.453259e-03
17	 6.348989e-10
	-9.051306e-03
	 3.757987e+00
	-1.181823e+00
	 7.627804e-01
	 5.505007e+00
	 9.443925e-01
	 5.000000e+00
	 1.535691e-01
	 1.450248e-01
	-9.051306e-03
18	 6.722459e-10
	-1.197567e-02
	 4.780398e+00
	-1.568796e-01
	 8.687777e-01
	 4.936450e+00
	 8.552363e-01
	 5.000000e+00
	 1.604759e-01
	 1.490183e-01
	-1.197567e-02
19	 7.095929e-10
	-1.093610e-02
	 6.216011e+00
	 1.276781e+00
	 9.952154e-01
	 4.788938e+00
	 1.212153e+00
	 5.000000e+00
	 1.561768e-01
	 1.457142e-01
	-1.093610e-02
20	 7.469399e-10
	-1.911628e-04
	 7.323709e+00
	 2.377320e+00
	 9.851050e-01
	 4.330200e+00
	 1.036025e+00
	 5.000000e+00
	 1.388159e-01
	 1.391203e-01
	-1.911628e-04
21	 7.842869e-10
	 9.787762e-04
	 7.780725e+00
	 2.824680e+00
	 8.505757e-01
	 3.340986e+00
	 1.127445e-01
	 5.000000e+00
	 1.151309e-01
	 1.167206e-01
	 9.787762e-04
22	 8.216339e-10
	-1.893958e-03
	 8.771752e+00
	 3.803416e+00
	 7.808095e-01
	 3.210288e+00
	 1.799913e-02
	 5.000000e+00
	 8.476119e-02
	 8.348999e-02
	-1.893958e-03
23	 8.589809e-10
	 9.371222e-04
	 9.218254e+00
	 4.234600e+00
	 7.020022e-01
	 2.919658e+00
	-2.137527e-01
	 5.000000e+00
	 4.669147e-02
	 4.828031e-02
	 9.371222e-04
24	 8.963279e-10
	-1.231592e-03
	 9.329928e+00
	 4.330373e+00
	 6.261824e-01
	 2.728369e+00
	-3.505257e-01
	 5.000000e+00
	 7.015759e-03
	 6.452984e-03
	-1.231592e-03
Title:  // Generated for: spectre 
Date: Fri Aug 12 16:48:46 2022
Plotname: Harmonic Balance Oscillator Steady State Spectrum
Flags: complex
No. Variables: 11
No. Points: 11
Command: btdsim version 3.5.3
Variables: 
	0	freq	Hz
	1	ip(v0)	A
	2	net20	V
	3	vout	V
	4	net37	V
	5	net23	V
	6	net14	V
	7	vcc!	V
	8	L1#branch	A
	9	L0#branch	A
	10	v0#branch	A
Values:
0	 0.000000e+00,  0.000000e+00
	-4.139755e-03,  0.000000e+00
	 5.000000e+00,  0.000000e+00
	 1.776779e-17,  0.000000e+00
	 6.793840e-01,  0.000000e+00
	 5.000000e+00,  0.000000e+00
	 1.278899e+00,  0.000000e+00
	 5.000000e+00,  0.000000e+00
	 3.674618e-03,  0.000000e+00
	-4.999998e-12,  0.000000e+00
	-4.139755e-03,  0.000000e+00
1	 1.115663e+09,  0.000000e+00
	 2.673417e-03, -2.984616e-04
	 4.379010e+00, -6.246877e-02
	 4.379010e+00,  7.171122e-15
	-4.275416e-02,  1.786691e-01
	-2.186175e+00,  7.101967e-02
	-1.314945e+00, -4.873792e-01
	 0.000000e+00,  0.000000e+00
	 2.227871e-03,  1.561719e-01
	 5.065656e-03,  1.559344e-01
	 2.673417e-03, -2.984616e-04
2	 2.231326e+09,  0.000000e+00
	 3.565217e-03, -1.397160e-03
	 3.469054e-02, -1.739687e-02
	 3.481286e-02, -1.714856e-02
	 1.978478e-02,  1.294076e-01
	 2.321474e-02,  1.092658e-01
	-1.711369e-01,  3.948975e-01
	 0.000000e+00,  0.000000e+00
	 3.102188e-04,  6.185974e-04
	 3.896828e-03, -8.279249e-04
	 3.565217e-03, -1.397160e-03
3	 3.346989e+09,  0.000000e+00
	-2.288827e-03,  1.566887e-03
	-2.622115e-02, -4.455686e-02
	-2.600869e-02, -4.468053e-02
	-2.826678e-02, -5.922161e-02
	-5.331263e-02, -7.339571e-02
	-1.127572e-01, -9.903857e-02
	 0.000000e+00,  0.000000e+00
	 5.296883e-04, -3.117149e-04
	-1.745044e-03,  1.267552e-03
	-2.288827e-03,  1.566887e-03
4	 4.462652e+09,  0.000000e+00
	-9.692701e-04,  8.525949e-04
	-2.808033e-02, -2.548690e-02
	-2.798908e-02, -2.558672e-02
	-1.263046e-02, -1.881687e-02
	-3.443422e-02, -4.138229e-02
	-3.285180e-02, -9.435538e-02
	 0.000000e+00,  0.000000e+00
	 2.272397e-04, -2.503625e-04
	-7.379240e-04,  6.140268e-04
	-9.692701e-04,  8.525949e-04
5	 5.578316e+09,  0.000000e+00
	 2.532420e-04, -1.206574e-03
	 4.940823e-02,  1.047562e-02
	 4.937794e-02,  1.061650e-02
	 1.662528e-02,  5.536813e-03
	 5.997218e-02,  1.180152e-02
	 8.133953e-02,  1.100402e-02
	 0.000000e+00,  0.000000e+00
	-7.471996e-05,  3.524166e-04
	 1.683546e-04, -8.555332e-04
	 2.532420e-04, -1.206574e-03
6	 6.693979e+09,  0.000000e+00
	 5.838408e-04, -6.417299e-04
	 3.295272e-02,  2.957557e-02
	 3.288221e-02,  2.965375e-02
	 6.844710e-03,  7.663506e-03
	 3.795504e-02,  3.380138e-02
	 4.973436e-02,  4.276961e-02
	 0.000000e+00,  0.000000e+00
	-1.757960e-04,  1.958696e-04
	 4.018280e-04, -4.512065e-04
	 5.838408e-04, -6.417299e-04
7	 7.809642e+09,  0.000000e+00
	 5.477664e-04,  4.553986e-04
	-2.752287e-02,  3.419592e-02
	-2.759244e-02,  3.413968e-02
	-5.121532e-03,  5.038069e-03
	-3.042681e-02,  3.711412e-02
	-3.708360e-02,  4.108832e-02
	 0.000000e+00,  0.000000e+00
	-1.742221e-04, -1.402241e-04
	 3.781797e-04,  3.100384e-04
	 5.477664e-04,  4.553986e-04
8	 8.925305e+09,  0.000000e+00
	-1.452092e-04,  5.011016e-04
	-3.569998e-02, -1.021415e-02
	-3.568166e-02, -1.027777e-02
	-4.314380e-03, -1.704420e-03
	-3.848527e-02, -1.055198e-02
	-4.475301e-02, -9.441195e-03
	 0.000000e+00,  0.000000e+00
	 4.553436e-05, -1.591494e-04
	-9.408076e-05,  3.431323e-04
	-1.452092e-04,  5.011016e-04
9	 1.004097e+10,  0.000000e+00
	-7.555389e-04,  3.984707e-04
	-3.345186e-02, -6.170247e-02
	-3.335397e-02, -6.175534e-02
	-2.604597e-03, -6.185812e-03
	-3.454432e-02, -6.395912e-02
	-3.312361e-02, -6.288294e-02
	 0.000000e+00,  0.000000e+00
	 2.445046e-04, -1.325577e-04
	-5.068938e-04,  2.737734e-04
	-7.555389e-04,  3.984707e-04
10	 1.115663e+10,  0.000000e+00
	-5.564738e-04,  1.572154e-04
	-1.515655e-02, -5.070226e-02
	-1.508419e-02, -5.072378e-02
	-7.643956e-04, -4.015785e-03
	-1.539514e-02, -5.242291e-02
	-1.384733e-02, -5.318642e-02
	 0.000000e+00,  0.000000e+00
	 1.808233e-04, -5.405395e-05
	-3.739196e-04,  1.098097e-04
	-5.564738e-04,  1.572154e-04
Title:  // Generated for: spectre 
Date: Fri Aug 12 16:48:46 2022
Plotname: Single-sideband Phase Noise Spectral Density (total)
Flags: real
No. Variables: 2
No. Points: 41
Command: btdsim version 3.5.3
Variables: 
	0	freq	Hz	grid=3
	1	phnoise	dBc/Hz
Values:
0	 1.000000e+03
	-5.918793e+01
1	 1.258925e+03
	-6.218004e+01
2	 1.584893e+03
	-6.517013e+01
3	 1.995262e+03
	-6.815769e+01
4	 2.511886e+03
	-7.114208e+01
5	 3.162278e+03
	-7.412251e+01
6	 3.981072e+03
	-7.709799e+01
7	 5.011872e+03
	-8.006732e+01
8	 6.309573e+03
	-8.302901e+01
9	 7.943282e+03
	-8.598126e+01
10	 1.000000e+04
	-8.892188e+01
11	 1.258925e+04
	-9.184827e+01
12	 1.584893e+04
	-9.475733e+01
13	 1.995262e+04
	-9.764549e+01
14	 2.511886e+04
	-1.005087e+02
15	 3.162278e+04
	-1.033423e+02
16	 3.981072e+04
	-1.061416e+02
17	 5.011872e+04
	-1.089014e+02
18	 6.309573e+04
	-1.116168e+02
19	 7.943282e+04
	-1.142831e+02
20	 1.000000e+05
	-1.168964e+02
21	 1.258925e+05
	-1.194540e+02
22	 1.584893e+05
	-1.219544e+02
23	 1.995262e+05
	-1.243975e+02
24	 2.511886e+05
	-1.267848e+02
25	 3.162278e+05
	-1.291192e+02
26	 3.981072e+05
	-1.314044e+02
27	 5.011872e+05
	-1.336452e+02
28	 6.309573e+05
	-1.358464e+02
29	 7.943282e+05
	-1.380131e+02
30	 1.000000e+06
	-1.401503e+02
31	 1.258925e+06
	-1.422624e+02
32	 1.584893e+06
	-1.443536e+02
33	 1.995262e+06
	-1.464274e+02
34	 2.511886e+06
	-1.484870e+02
35	 3.162278e+06
	-1.505349e+02
36	 3.981072e+06
	-1.525733e+02
37	 5.011872e+06
	-1.546040e+02
38	 6.309573e+06
	-1.566286e+02
39	 7.943282e+06
	-1.586482e+02
40	 1.000000e+07
	-1.606639e+02
Title:  // Generated for: spectre 
Date: Fri Aug 12 16:48:46 2022
Plotname: Summary Jitter Statistics
Flags: real
No. Variables: 4
No. Points: 1
Command: btdsim version 3.5.3
Variables: 
	0	period	s
	1	frequency	Hz
	2	periodJitter	s
	3	periodJitter_ppm	
Values:
0	 8.963279e-10
	 1.115663e+09
	 2.468624e-15
	 2.754153e+00
Title:  // Generated for: spectre 
Date: Fri Aug 12 16:48:46 2022
Plotname: Noise-Source Intensity, Phase-Noise Sensitivity, and Product
Flags: real
No. Variables: 43
No. Points: 25
Command: btdsim version 3.5.3
Variables: 
	0	time	s
	1	R3_noise	A^2/Hz
	2	R3_sensitivity	A^-2
	3	R3_product	s
	4	R2_noise	A^2/Hz
	5	R2_sensitivity	A^-2
	6	R2_product	s
	7	R1_noise	A^2/Hz
	8	R1_sensitivity	A^-2
	9	R1_product	s
	10	R0_noise	A^2/Hz
	11	R0_sensitivity	A^-2
	12	R0_product	s
	13	Q0#rb_noise	A^2/Hz
	14	Q0#rb_sensitivity	A^-2
	15	Q0#rb_product	s
	16	Q0#ib_noise	A^2/Hz
	17	Q0#ib_sensitivity	A^-2
	18	Q0#ib_product	s
	19	Q0#ic_noise	A^2/Hz
	20	Q0#ic_sensitivity	A^-2
	21	Q0#ic_product	s
	22	Q0#fn_noise	A/sqrt(Hz)
	23	Q0#fn_sensitivity	A^-1
	24	Q0#fn_product	s^(1/2)
	25	Q0#rc_noise	A^2/Hz
	26	Q0#rc_sensitivity	A^-2
	27	Q0#rc_product	s
	28	Q0#re_noise	A^2/Hz
	29	Q0#re_sensitivity	A^-2
	30	Q0#re_product	s
	31	PPV^2_of_KCL_at_node_net20	A^-2
	32	PPV^2_of_KCL_at_node_vout	A^-2
	33	PPV^2_of_KCL_at_node_net37	A^-2
	34	PPV^2_of_KCL_at_node_net23	A^-2
	35	PPV^2_of_KCL_at_node_net14	A^-2
	36	PPV^2_of_KCL_at_node_vcc!	A^-2
	37	PPV^2_of_KCL_at_node_Q0#collector	A^-2
	38	PPV^2_of_KCL_at_node_Q0#emitter	A^-2
	39	PPV^2_of_KCL_at_node_Q0#base	A^-2
	40	PPV^2_of_KVL_for_L1	V^-2
	41	PPV^2_of_KVL_for_L0	V^-2
	42	PPV^2_of_KVL_for_v0	V^-2
Values:
0	 0.000000e+00
	 8.287877e-25
	 3.498246e+00
	 2.899303e-24
	 1.035985e-24
	 5.774247e+01
	 5.982032e-23
	 2.367965e-24
	 5.755399e+01
	 1.362858e-22
	 4.604376e-23
	 3.217946e-01
	 1.481664e-23
	 1.841751e-23
	 3.507091e+01
	 6.459187e-22
	 6.880826e-34
	 3.043975e+00
	 2.094506e-33
	 2.922255e-34
	 1.867653e+01
	 5.457760e-33
	 9.536861e-19
	-1.744699e+00
	-1.663895e-18
	 4.875222e-23
	 4.281018e+00
	 2.087091e-22
	 1.657575e-22
	 4.193906e-01
	 6.951716e-23
	 5.442457e+00
	 3.498246e+00
	 3.217946e-01
	 1.952522e+01
	 5.755399e+01
	 1.540642e-04
	 1.937734e+01
	 6.453597e-03
	 2.770110e+00
	 1.633038e-02
	 4.191455e-02
	 7.814995e-03
1	 3.734700e-11
	 8.287877e-25
	 5.958355e-01
	 4.938212e-25
	 1.035985e-24
	 8.161792e+01
	 8.455492e-23
	 2.367965e-24
	 8.176087e+01
	 1.936069e-22
	 4.604376e-23
	 4.410071e-01
	 2.030563e-23
	 1.841751e-23
	 1.596489e+01
	 2.940335e-22
	 6.880739e-34
	 1.422447e+02
	 9.787484e-32
	 2.922255e-34
	 1.509108e-01
	 4.409998e-35
	 9.536752e-19
	-1.192664e+01
	-1.137414e-17
	 4.875222e-23
	 1.535551e+00
	 7.486150e-23
	 1.657575e-22
	 1.998632e-01
	 3.312883e-23
	 6.783069e-02
	 5.958355e-01
	 4.410071e-01
	 1.199883e+01
	 8.176087e+01
	 6.253428e-05
	 2.248850e+00
	 1.234642e+00
	 1.699837e+02
	 2.233380e-02
	 1.134997e-02
	 2.698373e-03
2	 7.469399e-11
	 8.287877e-25
	 3.717758e+01
	 3.081232e-23
	 1.035985e-24
	 1.555007e+02
	 1.610964e-22
	 2.367965e-24
	 1.555740e+02
	 3.683937e-22
	 4.604376e-23
	 2.502222e-01
	 1.152117e-23
	 1.841751e-23
	 2.790271e+00
	 5.138984e-23
	 6.880783e-34
	 1.867470e+02
	 1.284965e-31
	 2.922255e-34
	 3.700416e+01
	 1.081356e-32
	 9.536807e-19
	-1.366554e+01
	-1.303256e-17
	 4.875222e-23
	 5.205996e-01
	 2.538039e-23
	 1.657575e-22
	 5.027474e-04
	 8.333418e-26
	 3.409834e+01
	 3.717758e+01
	 2.502222e-01
	 6.991939e-01
	 1.555740e+02
	 8.624630e-06
	 4.304546e+01
	 2.282929e-01
	 2.000341e+02
	 1.272951e-02
	 9.531782e-03
	 3.876882e-04
3	 1.120410e-10
	 8.287877e-25
	 8.662004e+00
	 7.178962e-24
	 1.035985e-24
	 7.603549e+01
	 7.877160e-23
	 2.367965e-24
	 7.605713e+01
	 1.801006e-22
	 4.604376e-23
	 2.384259e-01
	 1.097803e-23
	 1.841751e-23
	 9.975929e-01
	 1.837317e-23
	 5.378951e-34
	 4.700349e+01
	 2.528295e-32
	 2.951572e-34
	 3.142128e+00
	 9.274215e-34
	 7.641116e-19
	-6.855909e+00
	-5.238680e-18
	 4.875222e-23
	 2.596271e-03
	 1.265740e-25
	 1.657575e-22
	 1.429447e-01
	 2.369417e-23
	 7.235710e+00
	 8.662004e+00
	 2.384259e-01
	 1.096602e+01
	 7.605713e+01
	 1.540642e-06
	 6.964183e+00
	 7.505954e-01
	 5.963358e+01
	 5.240544e-03
	 5.647507e-03
	 1.824107e-07
4	 1.493880e-10
	 8.287877e-25
	 2.572953e+01
	 2.132432e-23
	 1.035985e-24
	 1.029430e+02
	 1.066474e-22
	 2.367965e-24
	 1.030026e+02
	 2.439066e-22
	 4.604376e-23
	 1.869031e-01
	 8.605724e-24
	 1.842884e-23
	 1.749883e+01
	 3.224831e-22
	 6.858640e-28
	 2.022893e+02
	 1.387430e-25
	 1.819306e-25
	 3.135729e+01
	 5.704852e-24
	 2.388598e-13
	-1.422284e+01
	-3.397266e-12
	 4.875222e-23
	 6.247760e-01
	 3.045922e-23
	 1.657575e-22
	 1.043191e-01
	 1.729169e-23
	 2.419330e+01
	 2.572953e+01
	 1.869031e-01
	 2.715773e+00
	 1.030026e+02
	 8.624630e-06
	 3.259378e+01
	 1.195484e-02
	 2.054115e+02
	 1.714566e-03
	 3.600787e-04
	 7.095087e-04
5	 1.867350e-10
	 8.287877e-25
	 3.577252e+01
	 2.964783e-23
	 1.035985e-24
	 1.200512e+02
	 1.243712e-22
	 2.367965e-24
	 1.200533e+02
	 2.842821e-22
	 4.604376e-23
	 2.575812e-01
	 1.186001e-23
	 1.841789e-23
	 2.438979e+01
	 4.492083e-22
	 2.298931e-29
	 2.319456e+01
	 5.332270e-28
	 4.711167e-27
	 1.960795e+01
	 9.237633e-26
	 1.124352e-14
	-4.816073e+00
	-5.414961e-14
	 4.875222e-23
	 4.443241e-02
	 2.166179e-24
	 1.657575e-22
	 4.825890e-01
	 7.999277e-23
	 3.411830e+01
	 3.577252e+01
	 2.575812e-01
	 7.281664e-01
	 1.200533e+02
	 9.489104e-09
	 3.170025e+01
	 1.445311e+00
	 3.621975e+01
	 1.885897e-04
	 2.162258e-05
	 2.861441e-04
6	 2.240820e-10
	 8.287877e-25
	 1.440284e+01
	 1.193689e-23
	 1.035985e-24
	 1.342888e+02
	 1.391211e-22
	 2.367965e-24
	 1.343463e+02
	 3.181274e-22
	 4.604376e-23
	 1.175353e-02
	 5.411768e-25
	 3.375408e-23
	 7.892127e+01
	 2.663915e-21
	 1.173374e-23
	 6.756099e-01
	 7.927432e-24
	 8.716584e-22
	 4.802447e+00
	 4.186093e-21
	 1.541778e-09
	-8.219550e-01
	-1.267272e-09
	 4.875222e-23
	 1.474991e-01
	 7.190909e-24
	 1.657575e-22
	 3.973963e+00
	 6.587143e-22
	 1.363425e+01
	 1.440284e+01
	 1.175353e-02
	 6.539230e+00
	 1.343463e+02
	 6.162567e-06
	 1.661797e+01
	 3.553475e+00
	 7.327965e+00
	 3.299153e-03
	 8.870638e-04
	 5.628116e-04
7	 2.614290e-10
	 8.287877e-25
	 1.070828e+01
	 8.874889e-24
	 1.035985e-24
	 1.900315e+02
	 1.968697e-22
	 2.367965e-24
	 1.900336e+02
	 4.499929e-22
	 4.604376e-23
	 3.861973e-01
	 1.778198e-23
	 3.595628e-23
	 1.294016e-02
	 4.652801e-25
	 2.162118e-23
	 1.938612e+02
	 4.191508e-21
	 1.116605e-21
	 6.479894e+00
	 7.235482e-21
	 2.672517e-09
	-1.392340e+01
	-3.721053e-08
	 4.875222e-23
	 8.348926e-01
	 4.070287e-23
	 1.657575e-22
	 1.365718e-01
	 2.263780e-23
	 1.028739e+01
	 1.070828e+01
	 3.861973e-01
	 4.760997e+00
	 1.900336e+02
	 5.587096e-09
	 5.260931e+00
	 6.344938e-02
	 1.869102e+02
	 7.904336e-03
	 5.758925e-03
	 1.259077e-04
8	 2.987760e-10
	 8.287877e-25
	 8.806014e+00
	 7.298317e-24
	 1.035985e-24
	 2.007295e+02
	 2.079526e-22
	 2.367965e-24
	 2.007775e+02
	 4.754341e-22
	 4.604376e-23
	 7.133278e-01
	 3.284430e-23
	 3.870801e-23
	 7.877762e+00
	 3.049325e-22
	 5.195273e-23
	 2.945156e+02
	 1.530089e-20
	 1.701898e-21
	 5.802283e-01
	 9.874895e-22
	 5.882697e-09
	-1.716146e+01
	-1.009557e-07
	 4.875222e-23
	 1.490101e+01
	 7.264574e-22
	 1.657575e-22
	 4.348908e-01
	 7.208643e-23
	 8.487496e+00
	 8.806014e+00
	 7.133278e-01
	 2.172344e+00
	 2.007775e+02
	 2.874877e-06
	 8.965288e-01
	 3.427122e-02
	 2.881959e+02
	 1.382800e-02
	 1.211554e-02
	 1.644610e-05
9	 3.361230e-10
	 8.287877e-25
	 3.977207e+00
	 3.296260e-24
	 1.035985e-24
	 1.896322e+02
	 1.964560e-22
	 2.367965e-24
	 1.896463e+02
	 4.490759e-22
	 4.604376e-23
	 1.476882e+00
	 6.800121e-23
	 3.823058e-23
	 1.133469e+01
	 4.333318e-22
	 4.402510e-23
	 3.263097e+02
	 1.436582e-20
	 1.530955e-21
	 4.908209e-02
	 7.514248e-23
	 5.068264e-09
	-1.806404e+01
	-9.155335e-08
	 4.875222e-23
	 9.826804e+00
	 4.790785e-22
	 1.657575e-22
	 8.360386e-02
	 1.385797e-23
	 3.948573e+00
	 3.977207e+00
	 1.476882e+00
	 1.326401e+00
	 1.896463e+02
	 2.643323e-07
	 1.317151e+00
	 8.577113e-01
	 2.937082e+02
	 1.998260e-02
	 1.777438e-02
	 3.368365e-05
10	 3.734700e-10
	 8.287877e-25
	 5.557643e-01
	 4.606106e-25
	 1.035985e-24
	 1.749594e+02
	 1.812553e-22
	 2.367965e-24
	 1.749803e+02
	 4.143471e-22
	 4.604376e-23
	 1.826296e+00
	 8.408952e-23
	 3.524112e-23
	 1.333822e+01
	 4.700537e-22
	 1.762166e-23
	 3.337024e+02
	 5.880391e-21
	 8.467979e-22
	 4.017423e-02
	 3.401946e-23
	 2.223162e-09
	-1.826752e+01
	-4.061166e-08
	 4.875222e-23
	 5.419613e+00
	 2.642182e-22
	 1.657575e-22
	 1.292868e-03
	 2.143027e-25
	 5.479104e-01
	 5.557643e-01
	 1.826296e+00
	 8.110175e-01
	 1.749803e+02
	 6.192206e-07
	 2.521098e+00
	 1.924772e+00
	 2.849399e+02
	 2.353917e-02
	 2.375502e-02
	 9.872989e-06
11	 4.108170e-10
	 8.287877e-25
	 1.912943e-05
	 1.585423e-29
	 1.035985e-24
	 1.780851e+02
	 1.844935e-22
	 2.367965e-24
	 1.781129e+02
	 4.217652e-22
	 4.604376e-23
	 2.372508e+00
	 1.092392e-22
	 3.488019e-23
	 1.311899e+01
	 4.575929e-22
	 1.593258e-23
	 3.463740e+02
	 5.518631e-21
	 7.507056e-22
	 2.890099e-02
	 2.169613e-23
	 2.030422e-09
	-1.861113e+01
	-3.778844e-08
	 4.875222e-23
	 2.316168e+00
	 1.129183e-22
	 1.657575e-22
	 1.059271e-02
	 1.755821e-24
	 2.370081e-03
	 1.912943e-05
	 2.372508e+00
	 3.291803e-03
	 1.781129e+02
	 1.083868e-06
	 2.170356e+00
	 2.700158e+00
	 2.879100e+02
	 2.481293e-02
	 2.604684e-02
	 4.327440e-05
12	 4.481640e-10
	 8.287877e-25
	 2.140032e+00
	 1.773632e-24
	 1.035985e-24
	 1.662177e+02
	 1.721990e-22
	 2.367965e-24
	 1.662177e+02
	 3.935977e-22
	 4.604376e-23
	 2.367972e+00
	 1.090304e-22
	 3.036412e-23
	 1.397702e+01
	 4.244001e-22
	 4.874474e-24
	 3.526781e+02
	 1.719120e-21
	 6.527132e-23
	 9.671753e-02
	 6.312880e-24
	 6.993006e-10
	-1.877973e+01
	-1.313267e-08
	 4.875222e-23
	 1.823295e-01
	 8.888970e-24
	 1.657575e-22
	 3.718238e-01
	 6.163261e-23
	 1.989793e+00
	 2.140032e+00
	 2.367972e+00
	 8.539176e-02
	 1.662177e+02
	 2.644862e-36
	 3.376777e+00
	 4.616462e+00
	 2.765945e+02
	 2.284267e-02
	 2.501094e-02
	 7.434098e-05
13	 4.855110e-10
	 8.287877e-25
	 4.501480e+00
	 3.730772e-24
	 1.035985e-24
	 1.753861e+02
	 1.816974e-22
	 2.367965e-24
	 1.754221e+02
	 4.153933e-22
	 4.604376e-23
	 2.447208e+00
	 1.126787e-22
	 3.414281e-23
	 8.146942e+00
	 2.781595e-22
	 1.302379e-23
	 3.211341e+02
	 4.182383e-21
	 5.685044e-22
	 2.521804e-01
	 1.433657e-22
	 1.693528e-09
	-1.792022e+01
	-3.034840e-08
	 4.875222e-23
	 8.737427e-02
	 4.259690e-24
	 1.657575e-22
	 6.598507e-02
	 1.093752e-23
	 4.112035e+00
	 4.501480e+00
	 2.447208e+00
	 1.651951e+00
	 1.754221e+02
	 1.840837e-06
	 5.398218e+00
	 3.316882e+00
	 2.591773e+02
	 1.813738e-02
	 2.075068e-02
	 1.534648e-04
14	 5.228580e-10
	 8.287877e-25
	 1.248413e+01
	 1.034670e-23
	 1.035985e-24
	 1.652710e+02
	 1.712182e-22
	 2.367965e-24
	 1.652593e+02
	 3.913283e-22
	 4.604376e-23
	 2.396086e+00